LAMMPS (22 Jul 2025 - Update 3)
OMP_NUM_THREADS environment is not set. Defaulting to 1 thread.
  using 1 OpenMP thread(s) per MPI task
Loaded 1 plugins from C:\Users\SAURAB\AppData\Local\LAMMPS 64-bit 22Jul2025-MSMPI with Python\plugins
package gpu 1
# ============================================================================
# LAMMPS Reference Trajectory — Kovacs Memory Effect Baseline
# PURPOSE: Generate a glass equilibrated DIRECTLY at T=0.4 (no quench path).
#          This produces PE_ref, the equilibrium baseline at T=0.4.
#          The Kovacs signal = PE_kovacs(t) - PE_ref  (should be non-monotonic)
# RUN AS:  lmp -sf gpu -pk gpu 1 -in kovacs_reference.in
# ============================================================================

units           lj
dimension       3
boundary        p p p
atom_style      atomic

# ── 1. IDENTICAL SYSTEM SETUP (must match kovacs_memory.in exactly) ──────────
region          box block 0 20.274 0 20.274 0 20.274
create_box      2 box
Created orthogonal box = (0 0 0) to (20.274 20.274 20.274)
  2 by 2 by 2 MPI processor grid
create_atoms    1 random 8000 12345 box          # SAME seeds as original
Created 8000 atoms
  using lattice units in orthogonal box = (0 0 0) to (20.274 20.274 20.274)
  create_atoms CPU = 0.001 seconds
create_atoms    2 random 2000 54321 box
Created 2000 atoms
  using lattice units in orthogonal box = (0 0 0) to (20.274 20.274 20.274)
  create_atoms CPU = 0.000 seconds

mass            1 1.0
mass            2 1.0
pair_style      lj/cut 2.5
pair_coeff      1 1 1.0 1.0
pair_coeff      1 2 1.5 0.8
pair_coeff      2 2 0.5 0.88

thermo          100
minimize        1.0e-4 1.0e-6 1000 10000

CITE-CITE-CITE-CITE-CITE-CITE-CITE-CITE-CITE-CITE-CITE-CITE-CITE

Your simulation uses code contributions which should be cited:

- GPU package (short-range, long-range and three-body potentials): doi:10.1016/j.cpc.2010.12.021, doi:10.1016/j.cpc.2011.10.012, doi:10.1016/j.cpc.2013.08.002, doi:10.1016/j.commatsci.2014.10.068, doi:10.1016/j.cpc.2016.10.020, doi:10.3233/APC200086

@Article{Brown11,
 author = {W. M. Brown and P. Wang and S. J. Plimpton and A. N. Tharrington},
 title = {Implementing Molecular Dynamics on Hybrid High Performance Computers---Short Range Forces},
 journal = {Comput.\ Phys.\ Commun.},
 year =    2011,
 volume =  182,
 pages =   {898--911},
 doi =     {10.1016/j.cpc.2010.12.021}
}

@Article{Brown12,
 author = {W. M. Brown and A. Kohlmeyer and S. J. Plimpton and A. N. Tharrington},
 title = {Implementing Molecular Dynamics on Hybrid High Performance Computers - Particle-Particle Particle-Mesh},
 journal = {Comput.\ Phys.\ Commun.},
 year =    2012,
 volume =  183,
 doi =     {10.1016/j.cpc.2011.10.012},
 pages =   {449--459}
}

@Article{Brown13,
 author = {W. M. Brown and Y. Masako},
 title = {Implementing Molecular Dynamics on Hybrid High Performance Computers---Three-Body Potentials},
 journal = {Comput.\ Phys.\ Commun.},
 year =    2013,
 volume =  184,
 pages =   {2785--2793},
 doi =     {10.1016/j.cpc.2013.08.002},
}

@Article{Trung15,
 author = {T. D. Nguyen and S. J. Plimpton},
 title = {Accelerating Dissipative Particle Dynamics Simulations for Soft Matter Systems},
 journal = {Comput.\ Mater.\ Sci.},
 year =    2015,
 doi =     {10.1016/j.commatsci.2014.10.068},
 volume =  100,
 pages =   {173--180}
}

@Article{Trung17,
 author = {T. D. Nguyen},
 title = {{GPU}-Accelerated {T}ersoff Potentials for Massively Parallel
    Molecular Dynamics Simulations},
 journal = {Comput.\ Phys.\ Commun.},
 year =    2017,
 doi =     {10.1016/j.cpc.2016.10.020},
 volume =  212,
 pages =   {113--122}
}

@inproceedings{Nikolskiy19,
 author = {V. Nikolskiy and V. Stegailov},
 title = {{GPU} Acceleration of Four-Site Water Models in {LAMMPS}},
 booktitle = {Proceedings of the International Conference on Parallel
    Computing (ParCo 2019), Prague, Czech Republic},
 doi =     {10.3233/APC200086},
 year =    2019
}

CITE-CITE-CITE-CITE-CITE-CITE-CITE-CITE-CITE-CITE-CITE-CITE-CITE

Generated 0 of 1 mixed pair_coeff terms from geometric mixing rule
Per MPI rank memory allocation (min/avg/max) = 3.708 | 3.719 | 3.729 Mbytes
   Step          Temp          E_pair         E_mol          TotEng         Press     
         0   0              3.2804655e+14  0              3.2804655e+14  1.574625e+15 
       100   0             -7.3380799      0             -7.3380799      4.7952752    
       191   0             -8.0349373      0             -8.0349373      0.23849094   
Loop time of 0.753132 on 8 procs for 191 steps with 10000 atoms

72.1% CPU use with 8 MPI tasks x 1 OpenMP threads

Minimization stats:
  Stopping criterion = energy tolerance
  Energy initial, next-to-last, final = 
       328046547600946  -8.03443036199835  -8.03493725174834
  Force two-norm initial, final = 1.511422e+21 53.091856
  Force max component initial, final = 1.0189308e+21 8.9251004
  Final line search alpha, max atom move = 0.0063840547 0.056978329
  Iterations, force evaluations = 191 316

MPI task timing breakdown:
Section |  min time  |  avg time  |  max time  |%varavg| %total
---------------------------------------------------------------
Pair    | 0.39751    | 0.41474    | 0.4323     |   2.2 | 55.07
Neigh   | 0.000179   | 0.0001945  | 0.000209   |   0.0 |  0.03
Comm    | 0.21918    | 0.23542    | 0.24997    |   2.6 | 31.26
Output  | 7.3e-05    | 7.4625e-05 | 8e-05      |   0.0 |  0.01
Modify  | 2.2e-05    | 3.05e-05   | 4.1e-05    |   0.0 |  0.00
Other   |            | 0.1027     |            |       | 13.63

Nlocal:           1250 ave        1268 max        1223 min
Histogram: 1 0 0 0 0 4 1 0 0 2
Nghost:        3426.12 ave        3449 max        3400 min
Histogram: 1 0 0 3 1 0 0 0 1 2
Neighs:              0 ave           0 max           0 min
Histogram: 8 0 0 0 0 0 0 0 0 0

Total # of neighbors = 0
Ave neighs/atom = 0
Neighbor list builds = 70
Dangerous builds = 1
reset_timestep  0

# ── 2. LIQUID EQUILIBRATION at T=2.0 ─────────────────────────────────────────
velocity        all create 2.0 87287 loop geom
fix             1 all nvt temp 2.0 2.0 0.1
thermo          1000
run             20000
Generated 0 of 1 mixed pair_coeff terms from geometric mixing rule
Per MPI rank memory allocation (min/avg/max) = 2.621 | 2.636 | 2.641 Mbytes
   Step          Temp          E_pair         E_mol          TotEng         Press     
         0   2             -8.0349373      0             -5.0352373      2.6382533    
      1000   2.0115551     -5.2914518      0             -2.2744208      19.176056    
      2000   2.0207259     -5.2884171      0             -2.2576314      19.200536    
      3000   1.9689956     -5.2403023      0             -2.2871043      19.425226    
      4000   2.0025095     -5.3111123      0             -2.3076485      19.02576     
      5000   1.977826      -5.3070158      0             -2.3405735      19.053559    
      6000   1.9998282     -5.2816541      0             -2.2822118      19.182954    
      7000   1.9743218     -5.3348535      0             -2.3736669      18.921242    
      8000   1.9974726     -5.286732       0             -2.2908227      19.233862    
      9000   2.007904      -5.2940893      0             -2.2825344      19.218845    
     10000   1.9789117     -5.2560839      0             -2.2880133      19.353474    
     11000   2.0084388     -5.305809       0             -2.2934521      19.057241    
     12000   1.9917437     -5.2770562      0             -2.2897393      19.276655    
     13000   2.0047983     -5.2544983      0             -2.2476015      19.36538     
     14000   2.0051719     -5.2832409      0             -2.2757837      19.200354    
     15000   1.998845      -5.2778996      0             -2.2799318      19.236182    
     16000   1.9956996     -5.2592911      0             -2.266041       19.379885    
     17000   1.9755222     -5.2513363      0             -2.2883493      19.372091    
     18000   1.9769389     -5.2959497      0             -2.3308378      19.105694    
     19000   2.0289968     -5.2759524      0             -2.2327615      19.313933    
     20000   1.9776287     -5.2573759      0             -2.2912295      19.309851    
Loop time of 45.0128 on 8 procs for 20000 steps with 10000 atoms

Performance: 191945.508 tau/day, 444.318 timesteps/s, 4.443 Matom-step/s
77.6% CPU use with 8 MPI tasks x 1 OpenMP threads

MPI task timing breakdown:
Section |  min time  |  avg time  |  max time  |%varavg| %total
---------------------------------------------------------------
Pair    | 27.753     | 28.008     | 28.454     |   3.6 | 62.22
Neigh   | 0.012532   | 0.013215   | 0.014606   |   0.6 |  0.03
Comm    | 10.973     | 11.173     | 11.324     |   2.9 | 24.82
Output  | 0.000735   | 0.00077238 | 0.000811   |   0.0 |  0.00
Modify  | 4.9405     | 5.1932     | 5.3054     |   4.8 | 11.54
Other   |            | 0.6247     |            |       |  1.39

Nlocal:           1250 ave        1278 max        1231 min
Histogram: 1 0 1 4 1 0 0 0 0 1
Nghost:        3425.38 ave        3446 max        3392 min
Histogram: 1 0 0 0 1 1 2 1 0 2
Neighs:              0 ave           0 max           0 min
Histogram: 8 0 0 0 0 0 0 0 0 0

Total # of neighbors = 0
Ave neighs/atom = 0
Neighbor list builds = 3988
Dangerous builds = 0
unfix           1

# ── 3. DIRECT JUMP TO T=0.4 (no quench, no aging) ────────────────────────────
# This is the critical difference from kovacs_memory.in.
# We go straight from liquid → T=0.4, bypassing the T=0.3 history.
# This glass will equilibrate to the same TEMPERATURE as the Kovacs glass
# but will have a completely different structural history.
fix             2 all nvt temp 2.0 0.4 0.1
run             30000                           # ramp down from T=2.0 to T=0.4
Generated 0 of 1 mixed pair_coeff terms from geometric mixing rule
Per MPI rank memory allocation (min/avg/max) = 2.621 | 2.636 | 2.641 Mbytes
   Step          Temp          E_pair         E_mol          TotEng         Press     
     20000   1.9776287     -5.2573759      0             -2.2912295      19.309851    
     21000   1.9500607     -5.3411467      0             -2.4163483      18.793373    
     22000   1.898485      -5.4185844      0             -2.5711416      18.296053    
     23000   1.8669205     -5.4865488      0             -2.6864481      17.81159     
     24000   1.786139      -5.5621947      0             -2.8832542      17.267552    
     25000   1.7514602     -5.6051848      0             -2.9782572      17.013449    
     26000   1.6837223     -5.6493826      0             -3.1240517      16.644632    
     27000   1.6292883     -5.745703       0             -3.3020149      15.997964    
     28000   1.5782386     -5.8553501      0             -3.4882289      15.235356    
     29000   1.5408124     -5.9032328      0             -3.5922453      14.992671    
     30000   1.465364      -5.9432188      0             -3.7453926      14.590169    
     31000   1.4249792     -6.0582257      0             -3.9209706      13.846007    
     32000   1.3739064     -6.1252866      0             -4.064633       13.401749    
     33000   1.3067604     -6.1977082      0             -4.2377636      12.888367    
     34000   1.249367      -6.2724953      0             -4.3986323      12.319949    
     35000   1.2127826     -6.3483771      0             -4.5293852      11.848586    
     36000   1.145459      -6.4119995      0             -4.6939828      11.35848     
     37000   1.1055285     -6.5155561      0             -4.8574292      10.67424     
     38000   1.0371307     -6.580228       0             -5.0246875      10.272763    
     39000   0.98795198    -6.6658281      0             -5.1840483      9.6435049    
     40000   0.92837686    -6.7392333      0             -5.3468072      9.0927069    
     41000   0.87636846    -6.8390297      0             -5.5246085      8.4332866    
     42000   0.83274946    -6.925899       0             -5.6768997      7.8324346    
     43000   0.7800122     -7.0012595      0             -5.8313582      7.3258632    
     44000   0.71816658    -7.1093747      0             -6.0322326      6.5520146    
     45000   0.67008626    -7.1924571      0             -6.1874283      6.0103451    
     46000   0.61508872    -7.2864139      0             -6.3638731      5.3892734    
     47000   0.55918854    -7.3683703      0             -6.5296713      4.8200223    
     48000   0.51361768    -7.4682111      0             -6.6978616      4.108604     
     49000   0.45103553    -7.5543054      0             -6.8778198      3.4773392    
     50000   0.39920702    -7.6373707      0             -7.03862        2.9054732    
Loop time of 64.2009 on 8 procs for 30000 steps with 10000 atoms

Performance: 201866.393 tau/day, 467.283 timesteps/s, 4.673 Matom-step/s
78.7% CPU use with 8 MPI tasks x 1 OpenMP threads

MPI task timing breakdown:
Section |  min time  |  avg time  |  max time  |%varavg| %total
---------------------------------------------------------------
Pair    | 40.305     | 40.661     | 41.086     |   3.9 | 63.33
Neigh   | 0.013304   | 0.01392    | 0.014799   |   0.4 |  0.02
Comm    | 14.498     | 14.752     | 14.93      |   3.4 | 22.98
Output  | 0.001086   | 0.0011131  | 0.001198   |   0.1 |  0.00
Modify  | 7.3819     | 7.8373     | 8.024      |   6.8 | 12.21
Other   |            | 0.9356     |            |       |  1.46

Nlocal:           1250 ave        1273 max        1231 min
Histogram: 1 0 3 0 0 2 0 1 0 1
Nghost:        3429.12 ave        3460 max        3408 min
Histogram: 1 0 2 2 1 1 0 0 0 1
Neighs:              0 ave           0 max           0 min
Histogram: 8 0 0 0 0 0 0 0 0 0

Total # of neighbors = 0
Ave neighs/atom = 0
Neighbor list builds = 4556
Dangerous builds = 0
unfix           2

# ── 4. EQUILIBRATE AT T=0.4 (reach true equilibrium) ─────────────────────────
# Run long enough that PE flatlines — this is PE_ref.
# 150000 steps matches the Kovacs measurement window so ΔPE(t) is directly
# comparable step-by-step.
fix             3 all nvt temp 0.4 0.4 0.1

variable        ref_pe equal pe
fix             ref_out all print 100 "${ref_pe}" file reference_thermo.txt screen no

# Dump structural snapshots at matching frames for GNN comparison
# Frames saved every 1000 steps = 201 total frames (matches dump.kovacs)
dump            1 all custom 1000 dump.reference id type x y z
dump_modify     1 sort id

thermo          1000
run             200000
Generated 0 of 1 mixed pair_coeff terms from geometric mixing rule
Per MPI rank memory allocation (min/avg/max) = 2.637 | 2.651 | 2.656 Mbytes
   Step          Temp          E_pair         E_mol          TotEng         Press     
     50000   0.39920702    -7.6373707      0             -7.03862        2.9054732    
     51000   0.40149872    -7.650144       0             -7.0479561      2.8342045    
     52000   0.39861862    -7.6513125      0             -7.0534443      2.8247139    
     53000   0.40160505    -7.6550332      0             -7.0526858      2.8072036    
     54000   0.39769714    -7.652594       0             -7.0561079      2.820361     
     55000   0.4010626     -7.6571392      0             -7.0556055      2.8092873    
     56000   0.39860508    -7.6629262      0             -7.0650783      2.7580158    
     57000   0.39802327    -7.6631901      0             -7.0662149      2.7655294    
     58000   0.39851987    -7.6625616      0             -7.0648416      2.7575765    
     59000   0.39530786    -7.6659309      0             -7.0730284      2.7361668    
     60000   0.4040297     -7.6662201      0             -7.0602362      2.7331965    
     61000   0.40291835    -7.6759298      0             -7.0716127      2.7069051    
     62000   0.40039976    -7.6747112      0             -7.0741717      2.6981843    
     63000   0.39606193    -7.6715617      0             -7.0775282      2.6923197    
     64000   0.3994729     -7.6742622      0             -7.0751128      2.705675     
     65000   0.40237956    -7.6709729      0             -7.0674639      2.6999595    
     66000   0.40343926    -7.6691545      0             -7.0640561      2.7413667    
     67000   0.40075099    -7.6725726      0             -7.0715063      2.7138116    
     68000   0.40109359    -7.6790553      0             -7.0774751      2.6393303    
     69000   0.39732995    -7.6808154      0             -7.0848801      2.6309144    
     70000   0.39931904    -7.6700532      0             -7.0711345      2.7333362    
     71000   0.39840285    -7.6799104      0             -7.0823659      2.6569639    
     72000   0.40132732    -7.6839649      0             -7.0820341      2.6513561    
     73000   0.40108677    -7.6843271      0             -7.0827572      2.6083163    
     74000   0.40548271    -7.6771278      0             -7.0689646      2.6646009    
     75000   0.40233593    -7.6902876      0             -7.0868441      2.5893504    
     76000   0.40393234    -7.6896029      0             -7.083765       2.6239695    
     77000   0.40082302    -7.6922727      0             -7.0910982      2.5719043    
     78000   0.40537239    -7.6763612      0             -7.0683634      2.6745004    
     79000   0.39896816    -7.6945727      0             -7.0961804      2.5486599    
     80000   0.39345215    -7.6810697      0             -7.0909505      2.6383354    
     81000   0.40237568    -7.6896061      0             -7.0861029      2.5847517    
     82000   0.3940771     -7.6811385      0             -7.0900819      2.6470182    
     83000   0.39440087    -7.6880753      0             -7.0965331      2.6049936    
     84000   0.39871496    -7.6801481      0             -7.0821355      2.6528962    
     85000   0.40055734    -7.6986991      0             -7.0979232      2.5510478    
     86000   0.40528132    -7.6901454      0             -7.0822842      2.6176294    
     87000   0.39928297    -7.6886182      0             -7.0897536      2.6010115    
     88000   0.4045273     -7.6904395      0             -7.0837092      2.6327646    
     89000   0.40493777    -7.6866505      0             -7.0793046      2.6176464    
     90000   0.40200761    -7.6902894      0             -7.0873383      2.596312     
     91000   0.4083127     -7.6894492      0             -7.0770414      2.632324     
     92000   0.40618877    -7.6811355      0             -7.0719133      2.6792947    
     93000   0.40023611    -7.6995252      0             -7.0992311      2.5657041    
     94000   0.4023066     -7.7001305      0             -7.096731       2.5444253    
     95000   0.39739317    -7.6877516      0             -7.0917215      2.6064291    
     96000   0.39788424    -7.6910783      0             -7.0943116      2.5994825    
     97000   0.39898526    -7.7004887      0             -7.1020707      2.5415479    
     98000   0.40021858    -7.6970415      0             -7.0967737      2.5539155    
     99000   0.40788887    -7.6856425      0             -7.0738703      2.619827     
    100000   0.40508597    -7.6921384      0             -7.0845702      2.5755716    
    101000   0.40200409    -7.6910692      0             -7.0881234      2.605861     
    102000   0.40263628    -7.6869124      0             -7.0830184      2.6020821    
    103000   0.40406743    -7.6979527      0             -7.0919121      2.5560765    
    104000   0.39787685    -7.6989484      0             -7.1021928      2.5209382    
    105000   0.4005768     -7.6960654      0             -7.0952603      2.5498268    
    106000   0.39532531    -7.6973922      0             -7.1044635      2.551063     
    107000   0.39646793    -7.6984581      0             -7.1038156      2.5346353    
    108000   0.39793558    -7.6952519      0             -7.0984082      2.5345747    
    109000   0.3991966     -7.692454       0             -7.0937189      2.5616364    
    110000   0.39865672    -7.6937809      0             -7.0958556      2.5803834    
    111000   0.40527023    -7.6929053      0             -7.0850608      2.5920279    
    112000   0.39723292    -7.6918956      0             -7.0961058      2.5407976    
    113000   0.39810539    -7.6828052      0             -7.0857069      2.6451057    
    114000   0.40012833    -7.6956082      0             -7.0954758      2.573837     
    115000   0.39672062    -7.6920811      0             -7.0970597      2.5688057    
    116000   0.39945185    -7.7004467      0             -7.1013288      2.5483792    
    117000   0.39806421    -7.7008883      0             -7.1038517      2.5132331    
    118000   0.40280339    -7.6977841      0             -7.0936395      2.5437532    
    119000   0.4008055     -7.6960626      0             -7.0949144      2.5269977    
    120000   0.39884745    -7.6935147      0             -7.0953033      2.5516624    
    121000   0.40212908    -7.6939634      0             -7.0908301      2.5671988    
    122000   0.39404123    -7.6963453      0             -7.1053426      2.5407397    
    123000   0.3981025     -7.6996454      0             -7.1025513      2.5165755    
    124000   0.40195255    -7.702211       0             -7.0993425      2.5174104    
    125000   0.39719249    -7.6932653      0             -7.0975362      2.5737051    
    126000   0.39690528    -7.6929496      0             -7.0976512      2.5552857    
    127000   0.40079082    -7.7038383      0             -7.1027122      2.5251477    
    128000   0.40641554    -7.6970015      0             -7.0874392      2.5323537    
    129000   0.4011359     -7.6957048      0             -7.0940612      2.5519833    
    130000   0.40228755    -7.7005878      0             -7.0972168      2.5273396    
    131000   0.39818033    -7.7028342      0             -7.1056234      2.5327077    
    132000   0.40213387    -7.7013432      0             -7.0982027      2.529104     
    133000   0.39329785    -7.701228       0             -7.1113403      2.5201533    
    134000   0.39955086    -7.6936396      0             -7.0943732      2.5947805    
    135000   0.40197003    -7.6969107      0             -7.094016       2.5533849    
    136000   0.39775646    -7.703368       0             -7.106793       2.5090819    
    137000   0.40065086    -7.6943496      0             -7.0934334      2.5494723    
    138000   0.39661921    -7.6993472      0             -7.1044779      2.522985     
    139000   0.40102412    -7.6908378      0             -7.0893618      2.5965553    
    140000   0.3993181     -7.6854821      0             -7.0865648      2.6301323    
    141000   0.40023205    -7.7033298      0             -7.1030418      2.5059414    
    142000   0.39462215    -7.7038228      0             -7.1119488      2.5071312    
    143000   0.39949293    -7.6884361      0             -7.0892567      2.5937931    
    144000   0.39153608    -7.6987574      0             -7.111512       2.5335047    
    145000   0.39993222    -7.695652       0             -7.0958136      2.5488327    
    146000   0.39508801    -7.6937295      0             -7.1011568      2.5587925    
    147000   0.40100398    -7.7012555      0             -7.0998097      2.5204754    
    148000   0.39901568    -7.6975604      0             -7.0990967      2.5568441    
    149000   0.40110824    -7.6980399      0             -7.0964377      2.5308574    
    150000   0.39521253    -7.7020746      0             -7.1093151      2.4956971    
    151000   0.39803744    -7.6965555      0             -7.099559       2.5387701    
    152000   0.4034799     -7.7003211      0             -7.0951618      2.5474477    
    153000   0.40030559    -7.7047832      0             -7.1043849      2.4908705    
    154000   0.40031031    -7.7035722      0             -7.1031667      2.4978822    
    155000   0.39641724    -7.7023901      0             -7.1078238      2.4993181    
    156000   0.39639711    -7.6992684      0             -7.1047321      2.5298558    
    157000   0.40064489    -7.7022071      0             -7.1012998      2.5095141    
    158000   0.39795468    -7.7024171      0             -7.1055448      2.4707684    
    159000   0.40268083    -7.6999251      0             -7.0959643      2.5462818    
    160000   0.40101723    -7.6941602      0             -7.0926945      2.5800923    
    161000   0.39853293    -7.7038986      0             -7.106159       2.5012229    
    162000   0.40252071    -7.6927588      0             -7.0890382      2.581437     
    163000   0.40232505    -7.6969752      0             -7.0935479      2.5438665    
    164000   0.39972639    -7.7009092      0             -7.1013796      2.5335084    
    165000   0.40131447    -7.6972336      0             -7.0953221      2.5485177    
    166000   0.40616998    -7.6947538      0             -7.0855598      2.5453748    
    167000   0.4037734     -7.6953482      0             -7.0897487      2.5595386    
    168000   0.40290665    -7.7115808      0             -7.1072812      2.4420141    
    169000   0.40039539    -7.6971857      0             -7.0966527      2.544432     
    170000   0.39840852    -7.7075748      0             -7.1100217      2.4661375    
    171000   0.40222115    -7.7135617      0             -7.1102903      2.4420798    
    172000   0.39963862    -7.7060433      0             -7.1066453      2.4919652    
    173000   0.39828251    -7.6965123      0             -7.0991482      2.5118717    
    174000   0.40131805    -7.6934935      0             -7.0915766      2.5419655    
    175000   0.39534687    -7.6995085      0             -7.1065475      2.5137758    
    176000   0.3979631     -7.6995169      0             -7.1026319      2.4959337    
    177000   0.3992644     -7.7017201      0             -7.1028833      2.4876419    
    178000   0.40290955    -7.696559       0             -7.0922551      2.5245716    
    179000   0.39994052    -7.7022351      0             -7.1023843      2.4955234    
    180000   0.40188092    -7.7183593      0             -7.1155982      2.4139815    
    181000   0.40009605    -7.7029287      0             -7.1028447      2.4779198    
    182000   0.40238562    -7.7068843      0             -7.1033662      2.4717928    
    183000   0.39466104    -7.7041571      0             -7.1122247      2.4729472    
    184000   0.3931517     -7.71077        0             -7.1211014      2.4414003    
    185000   0.3980685     -7.7061552      0             -7.1091122      2.4703669    
    186000   0.39402907    -7.7027703      0             -7.1117858      2.4914821    
    187000   0.40410264    -7.7021138      0             -7.0960204      2.5005472    
    188000   0.40423953    -7.7102249      0             -7.1039262      2.4375507    
    189000   0.40280662    -7.7011999      0             -7.0970504      2.5209531    
    190000   0.39327064    -7.6989057      0             -7.1090587      2.5431581    
    191000   0.39666953    -7.6939314      0             -7.0989866      2.5255308    
    192000   0.4008136     -7.6979576      0             -7.0967973      2.5309305    
    193000   0.40318513    -7.7064179      0             -7.1017006      2.4556221    
    194000   0.39779242    -7.7048989      0             -7.10827        2.4842736    
    195000   0.40191503    -7.7054241      0             -7.1026119      2.4743486    
    196000   0.40119577    -7.705513       0             -7.1037795      2.5067162    
    197000   0.39889615    -7.7065467      0             -7.1082623      2.4928837    
    198000   0.39624232    -7.701828       0             -7.107524       2.509108     
    199000   0.39999734    -7.6974126      0             -7.0974766      2.5356686    
    200000   0.40468858    -7.7098562      0             -7.102884       2.4652841    
    201000   0.40052188    -7.7122634      0             -7.1115407      2.4486406    
    202000   0.39826223    -7.6978364      0             -7.1005028      2.5300085    
    203000   0.40343413    -7.7099446      0             -7.1048539      2.4526072    
    204000   0.39694558    -7.704793       0             -7.1094342      2.4802013    
    205000   0.39416643    -7.7068109      0             -7.1156204      2.4483865    
    206000   0.3993677     -7.7084788      0             -7.1094871      2.4559693    
    207000   0.3960771     -7.6976522      0             -7.103596       2.5477643    
    208000   0.39949146    -7.7067533      0             -7.107576       2.4636323    
    209000   0.40067617    -7.7110977      0             -7.1101435      2.4454236    
    210000   0.40296171    -7.6988255      0             -7.0944433      2.508307     
    211000   0.4011474     -7.7125913      0             -7.1109303      2.4197499    
    212000   0.39618077    -7.7071129      0             -7.1129012      2.4601926    
    213000   0.40009471    -7.7168269      0             -7.1167448      2.3836548    
    214000   0.39938594    -7.7110474      0             -7.1120284      2.4498789    
    215000   0.39908324    -7.7130301      0             -7.1144651      2.4177656    
    216000   0.39899525    -7.7109117      0             -7.1124786      2.4627649    
    217000   0.3978969     -7.7067058      0             -7.1099202      2.4855564    
    218000   0.39751277    -7.7098254      0             -7.1136159      2.4625439    
    219000   0.39794526    -7.7028898      0             -7.1060316      2.4976515    
    220000   0.39449877    -7.7116621      0             -7.1199731      2.4307623    
    221000   0.40219381    -7.7108892      0             -7.1076589      2.4687974    
    222000   0.40053212    -7.7100282      0             -7.1092901      2.42503      
    223000   0.40038945    -7.7127474      0             -7.1122233      2.4342984    
    224000   0.40322204    -7.7063513      0             -7.1015787      2.4786169    
    225000   0.40061576    -7.7085165      0             -7.107653       2.4660342    
    226000   0.40782191    -7.7087185      0             -7.0970468      2.4627329    
    227000   0.4075323     -7.6978485      0             -7.0866112      2.5252565    
    228000   0.40565514    -7.7097172      0             -7.1012954      2.4373384    
    229000   0.39902845    -7.7048928      0             -7.10641        2.4539227    
    230000   0.40475025    -7.7034477      0             -7.0963831      2.4773012    
    231000   0.40460534    -7.7018024      0             -7.094955       2.4820847    
    232000   0.40049048    -7.7081055      0             -7.1074299      2.4599314    
    233000   0.39855911    -7.7024016      0             -7.1046227      2.4785004    
    234000   0.39636492    -7.7013771      0             -7.1068892      2.4966929    
    235000   0.39750044    -7.7083396      0             -7.1121486      2.4454392    
    236000   0.39818799    -7.7081117      0             -7.1108894      2.44754      
    237000   0.39795039    -7.7095422      0             -7.1126763      2.4743606    
    238000   0.39909222    -7.7071622      0             -7.1085838      2.4746508    
    239000   0.39354603    -7.7182337      0             -7.1279737      2.3856436    
    240000   0.39913798    -7.6999486      0             -7.1013015      2.5130769    
    241000   0.40434629    -7.7130646      0             -7.1066058      2.4136138    
    242000   0.40237433    -7.703569       0             -7.1000679      2.4839216    
    243000   0.40176404    -7.703098       0             -7.1005122      2.4676261    
    244000   0.40422525    -7.7129092      0             -7.106632       2.4356461    
    245000   0.39176244    -7.7049136      0             -7.1173287      2.469986     
    246000   0.39637885    -7.7091883      0             -7.1146795      2.4688682    
    247000   0.39581639    -7.7083838      0             -7.1147186      2.4558583    
    248000   0.39378801    -7.7109758      0             -7.1203529      2.4176288    
    249000   0.39719226    -7.7204191      0             -7.1246903      2.3729019    
    250000   0.39820374    -7.7134538      0             -7.116208       2.4312286    
Loop time of 395.835 on 8 procs for 200000 steps with 10000 atoms

Performance: 218272.504 tau/day, 505.260 timesteps/s, 5.053 Matom-step/s
82.1% CPU use with 8 MPI tasks x 1 OpenMP threads

MPI task timing breakdown:
Section |  min time  |  avg time  |  max time  |%varavg| %total
---------------------------------------------------------------
Pair    | 230.64     | 232.37     | 236.61     |  11.6 | 58.70
Neigh   | 0.046764   | 0.050367   | 0.053391   |   1.0 |  0.01
Comm    | 105.09     | 105.73     | 106.03     |   3.2 | 26.71
Output  | 0.47787    | 0.58864    | 0.68805    |   9.1 |  0.15
Modify  | 47.802     | 51.434     | 53.025     |  22.4 | 12.99
Other   |            | 5.656      |            |       |  1.43

Nlocal:           1250 ave        1281 max        1236 min
Histogram: 2 1 2 1 1 0 0 0 0 1
Nghost:        3432.12 ave        3448 max        3403 min
Histogram: 1 0 0 0 1 0 3 0 2 1
Neighs:              0 ave           0 max           0 min
Histogram: 8 0 0 0 0 0 0 0 0 0

Total # of neighbors = 0
Ave neighs/atom = 0
Neighbor list builds = 18037
Dangerous builds = 0

# ── OUTPUT ────────────────────────────────────────────────────────────────────
# reference_thermo.txt  →  PE(t) at equilibrium T=0.4  →  used as PE_ref
# dump.reference        →  structural snapshots for GNN inference (201 frames)
Total wall time: 0:08:28
